 Gaussian 16, Revision B.01,
 Gaussian 16:  ES64L-G16RevB.01 20-Dec-2017

 -----------------------
 # opt b3lyp/aug-cc-pvdz
 -----------------------

 -------------------
 Title Card Required
 -------------------
 Symbolic Z-matrix:
 Charge =  0 Multiplicity = 1

 SCF Done:  E(RB3LYP) =  -1650.83451139     A.U. after   20 cycles
 SCF Done:  E(RB3LYP) =  -1650.87208033     A.U. after   18 cycles
 SCF Done:  E(RB3LYP) =  -1650.90238018     A.U. after   19 cycles
 SCF Done:  E(RB3LYP) =  -1650.90939029     A.U. after   17 cycles
 SCF Done:  E(RB3LYP) =  -1650.91027017     A.U. after   16 cycles
 SCF Done:  E(RB3LYP) =  -1650.91039732     A.U. after   14 cycles
 SCF Done:  E(RB3LYP) =  -1650.91043079     A.U. after   13 cycles
 SCF Done:  E(RB3LYP) =  -1650.91044017     A.U. after   12 cycles
 SCF Done:  E(RB3LYP) =  -1650.91044317     A.U. after   11 cycles
 SCF Done:  E(RB3LYP) =  -1650.91044491     A.U. after   11 cycles
 SCF Done:  E(RB3LYP) =  -1650.91044536     A.U. after    9 cycles
 SCF Done:  E(RB3LYP) =  -1650.91044628     A.U. after    9 cycles
 SCF Done:  E(RB3LYP) =  -1650.91044652     A.U. after   10 cycles
 Optimization completed.
    -- Stationary point found.

                         Standard orientation:
 ---------------------------------------------------------------------
 Center     Atomic      Atomic             Coordinates (Angstroms)
 Number     Number       Type             X           Y           Z
 ---------------------------------------------------------------------
      1          6           0       -1.690568   -0.060005   -1.214702
      2          6           0       -1.690030   -1.173936   -0.318492
      3          1           0       -1.666125   -2.221331   -0.602692
      4          6           0       -1.690148   -0.665689    1.017766
      5          1           0       -1.667314   -1.259851    1.925989
      6          6           0       -1.691141    1.136609   -0.432234
      7          1           0       -1.668320    2.151037   -0.817962
      8          6           0       -1.690970    0.762190    0.947452
      9          1           0       -1.668843    1.442381    1.793186
     10          6           0        1.690511   -0.760969   -0.948617
     11          6           0        1.690218   -1.137411    0.430649
     12          1           0        1.666725   -2.152592    0.814361
     13          6           0        1.690541    0.057869    1.214745
     14          1           0        1.667696    0.109844    2.298799
     15          6           0        1.690959    0.667033   -1.016823
     16          1           0        1.668117    1.262499   -1.924175
     17          6           0        1.691053    1.173130    0.320201
     18          1           0        1.668196    2.220077    0.606178
     19         26           0       -0.000091    0.000327    0.000014
     20          1           0       -1.667457   -0.113284   -2.298660
     21          1           0        1.667130   -1.440189   -1.795063
 ---------------------------------------------------------------------

 The electronic state is 1-A.
 Alpha  occ. eigenvalues -- -256.04328 -29.98638 -25.86061 -25.84096 -25.84096
 Alpha  occ. eigenvalues --  -10.19253 -10.19253 -10.19226 -10.19226 -10.19226
 Alpha  occ. eigenvalues --  -10.19226 -10.19177 -10.19177 -10.19177 -10.19176
 Alpha  occ. eigenvalues --   -3.39546  -2.19789  -2.15246  -2.15246  -0.89020
 Alpha  occ. eigenvalues --   -0.87557  -0.71242  -0.71240  -0.71171  -0.71169
 Alpha  occ. eigenvalues --   -0.54697  -0.54696  -0.54009  -0.54008  -0.53506
 Alpha  occ. eigenvalues --   -0.52325  -0.41172  -0.40845  -0.40843  -0.40039
 Alpha  occ. eigenvalues --   -0.40037  -0.37948  -0.37947  -0.37842  -0.37841
 Alpha  occ. eigenvalues --   -0.36250  -0.26959  -0.26957  -0.25127  -0.25125
 Alpha  occ. eigenvalues --   -0.23030  -0.19927  -0.19926
 Alpha virt. eigenvalues --   -0.01356  -0.01356  -0.01168   0.00080   0.00080
 Alpha virt. eigenvalues --    0.00459   0.02243   0.02244   0.03060   0.03150
 Alpha virt. eigenvalues --    0.03151   0.04018   0.04018   0.04742   0.04822

 Mulliken charges:
               1
     1  C    1.107863
     2  C    1.106850
     3  H   -0.908844
     4  C    1.107991
     5  H   -0.908932
     6  C    1.108104
     7  H   -0.908826
     8  C    1.108379
     9  H   -0.908916
    10  C    1.107112
    11  C    1.107454
    12  H   -0.908879
    13  C    1.108576
    14  H   -0.908841
    15  C    1.108581
    16  H   -0.908774
    17  C    1.107799
    18  H   -0.908786
    19  Fe  -1.990082
    20  H   -0.908930
    21  H   -0.908900
 Sum of Mulliken charges =  -0.00000

 Dipole moment (field-independent basis, Debye):
    X=             -0.0000    Y=             -0.0006    Z=              0.0000  Tot=              0.0006
 Quadrupole moment (field-independent basis, Debye-Ang):
   XX=            -81.8611   YY=            -68.2539   ZZ=            -68.2574
   XY=             -0.0019   XZ=             -0.0023   YZ=              0.0007

 Normal termination of Gaussian 16 at Wed Apr 28 03:36:50 2021.
