 Gaussian 16, Revision B.01,
 Gaussian 16:  ES64L-G16RevB.01 20-Dec-2017

 -----------------------
 # opt b3lyp/aug-cc-pvdz
 -----------------------

 -------------------
 Title Card Required
 -------------------
 Symbolic Z-matrix:
 Charge =  0 Multiplicity = 2

 SCF Done:  E(UB3LYP) =  -2284.38436858     A.U. after   28 cycles
 SCF Done:  E(UB3LYP) =  -2284.38610675     A.U. after   14 cycles
 SCF Done:  E(UB3LYP) =  -2284.38626575     A.U. after   13 cycles
 SCF Done:  E(UB3LYP) =  -2284.38627588     A.U. after   12 cycles
 SCF Done:  E(UB3LYP) =  -2284.38627696     A.U. after   11 cycles
 Optimization completed.
    -- Stationary point found.

                         Standard orientation:
 ---------------------------------------------------------------------
 Center     Atomic      Atomic             Coordinates (Angstroms)
 Number     Number       Type             X           Y           Z
 ---------------------------------------------------------------------
      1          6           0        5.048116   -0.550782    0.002123
      2          6           0        4.379566   -1.062666    1.157282
      3          1           0        4.630786   -0.841899    2.189971
      4          6           0        3.301384   -1.890285    0.713006
      5          1           0        2.591989   -2.409915    1.349440
      6          6           0        4.382809   -1.060316   -1.155945
      7          1           0        4.636925   -0.837470   -2.187478
      8          6           0        3.303390   -1.888834   -0.716376
      9          1           0        2.595791   -2.407180   -1.355850
     10          6           0        2.804102    1.987802    0.714421
     11          6           0        1.724111    1.159458    1.152150
     12          1           0        1.472405    0.934068    2.184513
     13          6           0        1.049098    0.640132   -0.000066
     14          6           0        2.804098    1.987779   -0.714607
     15          1           0        3.516228    2.500170   -1.353673
     16          6           0        1.724107    1.159418   -1.152303
     17          1           0        1.472401    0.933998   -2.184660
     18         26           0        3.052236    0.050732   -0.000054
     19          1           0        5.894505    0.128798    0.003995
     20          1           0        3.516231    2.500211    1.353472
     21          6           0       -0.176159   -0.231521   -0.000056
     22          6           0       -1.485844    0.578652   -0.000033
     23          1           0       -0.157902   -0.889188    0.881842
     24          1           0       -0.157923   -0.889175   -0.881964
     25          6           0       -2.735984   -0.306443    0.000007
     26          1           0       -1.499671    1.239683    0.880558
     27          1           0       -1.499714    1.239668   -0.880634
     28          6           0       -4.045715    0.489872    0.000029
     29          1           0       -2.713379   -0.968627   -0.881014
     30          1           0       -2.713337   -0.968604    0.881045
     31          1           0       -4.067262    1.152090    0.881252
     32          1           0       -4.067309    1.152062   -0.881213
     33          6           0       -5.294563   -0.401339    0.000078
     34          6           0       -6.591537    0.408645    0.000102
     35          1           0       -5.282829   -1.060218    0.880980
     36          1           0       -5.282878   -1.060246   -0.880804
     37          1           0       -6.649893    1.075531    0.876749
     38          1           0       -6.649943    1.075503   -0.876564
     39         16           0       -8.130576   -0.564733    0.000160
 ---------------------------------------------------------------------

 The electronic state is 2-A.
 Alpha  occ. eigenvalues -- -256.04206 -88.89582 -29.98528 -25.85942 -25.83989
 Alpha  occ. eigenvalues --  -25.83984 -10.22602 -10.19622 -10.19244 -10.19218
 Alpha  occ. eigenvalues --  -10.19212 -10.19209 -10.19178 -10.19168 -10.19161
 Alpha  occ. eigenvalues --  -10.19135 -10.18937 -10.18935 -10.18932 -10.18880
 Alpha  occ. eigenvalues --  -10.18606 -10.18423  -7.95446  -5.92482  -5.91530
 Alpha  occ. eigenvalues --   -5.90651  -3.39497  -2.19729  -2.15207  -2.15207
 Alpha  occ. eigenvalues --   -0.89154  -0.87689  -0.82672  -0.80117  -0.76269
 Alpha  occ. eigenvalues --   -0.71763  -0.71230  -0.71216  -0.71165  -0.67331
 Alpha  occ. eigenvalues --   -0.62426  -0.59272  -0.58666  -0.55098  -0.54438
 Alpha  occ. eigenvalues --   -0.54202  -0.53717  -0.52768  -0.50452  -0.49463
 Alpha  occ. eigenvalues --   -0.46704  -0.43876  -0.42840  -0.42549  -0.41364
 Alpha  occ. eigenvalues --   -0.40792  -0.40617  -0.39965  -0.39637  -0.39023
 Alpha  occ. eigenvalues --   -0.38518  -0.37932  -0.37902  -0.37811  -0.36019
 Alpha  occ. eigenvalues --   -0.35890  -0.35455  -0.33959  -0.33884  -0.33061
 Alpha  occ. eigenvalues --   -0.32581  -0.28458  -0.26930  -0.26751  -0.25113
 Alpha  occ. eigenvalues --   -0.24694  -0.24371  -0.22972  -0.19902  -0.19866
 Alpha virt. eigenvalues --   -0.01598  -0.01366  -0.01254  -0.00977  -0.00487
 Alpha virt. eigenvalues --   -0.00372   0.00330   0.00712   0.00783   0.01702
 Alpha virt. eigenvalues --    0.01907   0.02032   0.02303   0.02690   0.02922

  Beta  occ. eigenvalues -- -256.04206 -88.89058 -29.98528 -25.85942 -25.83989
  Beta  occ. eigenvalues --  -25.83984 -10.22621 -10.19622 -10.19244 -10.19218
  Beta  occ. eigenvalues --  -10.19212 -10.19212 -10.19178 -10.19168 -10.19161
  Beta  occ. eigenvalues --  -10.19135 -10.18937 -10.18935 -10.18933 -10.18880
  Beta  occ. eigenvalues --  -10.18607 -10.18423  -7.94906  -5.91203  -5.90743
  Beta  occ. eigenvalues --   -5.90326  -3.39497  -2.19729  -2.15207  -2.15207
  Beta  occ. eigenvalues --   -0.89154  -0.87689  -0.82455  -0.79774  -0.75740
  Beta  occ. eigenvalues --   -0.71230  -0.71220  -0.71165  -0.71137  -0.66637
  Beta  occ. eigenvalues --   -0.61529  -0.58798  -0.58157  -0.55098  -0.54438
  Beta  occ. eigenvalues --   -0.54202  -0.53717  -0.52768  -0.50446  -0.49281
  Beta  occ. eigenvalues --   -0.46400  -0.43825  -0.42493  -0.42404  -0.41263
  Beta  occ. eigenvalues --   -0.40792  -0.40610  -0.39965  -0.39614  -0.38757
  Beta  occ. eigenvalues --   -0.38413  -0.37911  -0.37902  -0.37654  -0.35833
  Beta  occ. eigenvalues --   -0.35749  -0.35275  -0.33955  -0.33827  -0.33058
  Beta  occ. eigenvalues --   -0.32276  -0.26930  -0.26750  -0.25113  -0.24477
  Beta  occ. eigenvalues --   -0.23324  -0.22968  -0.19902  -0.19866
  Beta virt. eigenvalues --   -0.15488  -0.01578  -0.01366  -0.01254  -0.00936
  Beta virt. eigenvalues --   -0.00483  -0.00369   0.00368   0.00734   0.00803
  Beta virt. eigenvalues --    0.01797   0.02054   0.02074   0.02356   0.02775

 Mulliken charges and spin densities:
               1          2
     1  C    1.234700   0.000005
     2  C    1.046017  -0.000002
     3  H   -0.940096   0.000000
     4  C    1.216055  -0.000005
     5  H   -0.958051  -0.000000
     6  C    1.046476  -0.000002
     7  H   -0.940195   0.000000
     8  C    1.216327  -0.000005
     9  H   -0.958339  -0.000000
    10  C    0.890134   0.000004
    11  C    1.063931  -0.000014
    12  H   -1.211534   0.000001
    13  C    1.165284   0.000021
    14  C    0.890952   0.000004
    15  H   -1.022586   0.000001
    16  C    1.063069  -0.000014
    17  H   -1.211345   0.000001
    18  Fe  -2.728162  -0.000007
    19  H   -0.963940  -0.000000
    20  H   -1.022691   0.000001
    21  C    1.241217   0.000038
    22  C    1.431324  -0.002232
    23  H   -0.698947  -0.000004
    24  H   -0.698809  -0.000004
    25  C    0.984845  -0.003083
    26  H   -0.549795  -0.000080
    27  H   -0.549808  -0.000080
    28  C    1.502881  -0.006606
    29  H   -0.573087  -0.000214
    30  H   -0.573084  -0.000213
    31  H   -0.539592  -0.000136
    32  H   -0.539609  -0.000136
    33  C    1.303934   0.007255
    34  C    0.847214  -0.054711
    35  H   -0.460404  -0.002694
    36  H   -0.460439  -0.002694
    37  H   -0.353735   0.028774
    38  H   -0.353728   0.028775
    39  S    0.163616   1.008057
 Sum of Mulliken charges =  -0.00000   1.00000

 Dipole moment (field-independent basis, Debye):
    X=              1.5117    Y=              0.9727    Z=             -0.0000  Tot=              1.7977
 Quadrupole moment (field-independent basis, Debye-Ang):
   XX=           -152.8940   YY=           -131.1887   ZZ=           -118.9284
   XY=             -0.2414   XZ=              0.0007   YZ=              0.0005

 Normal termination of Gaussian 16 at Wed Apr 28 15:26:41 2021.
